file 9712649 1253526891                                         
version 2
run ARPTest-0-20090511-10:24:40-23140
attr configname ARPTest
attr datetime 20090511-10:24:40
attr experiment ARPTest
attr inifile omnetpp.ini
attr iterationvars ""
attr iterationvars2 $repetition=0
attr measurement ""
attr network ARPTest
attr processid 23140
attr repetition 0
attr replication #0
attr resultdir results
attr runnumber 0
attr seedset 0
vector 214  ARPTest.client.tcp  "sent ack"  ETV
214	775773 108442 92 604877 1 17.253306577694 3243 0 2347406 3624013731 5.1108770789041e+015
vector 188  ARPTest.client.eth[0].mac  framesSent  ETV
188	9208896 98220 101 604889 1.0000672 17.253373777694 3218 1 3218 5179371 11113203709
vector 190  ARPTest.client.eth[0].mac  bytesSent  ETV
190	9403758 107171 101 604889 1.0000672 17.253373777694 3218 64 1303356 2677188938 2.8498536637539e+015
vector 173  ARPTest.router1.eth[1].mac  framesReceivedOK  ETV
173	8748680 98220 102 604890 1.0000672 17.253373777694 3218 1 3218 5179371 11113203709
vector 175  ARPTest.router1.eth[1].mac  bytesReceivedOK  ETV
175	8951978 107171 102 604890 1.0000672 17.253373777694 3218 64 1303356 2677188938 2.8498536637539e+015
vector 179  ARPTest.router1.eth[1].mac  framesPassedToHL  ETV
179	9059149 98220 102 604890 1.0000672 17.253373777694 3218 1 3218 5179371 11113203709
vector 172  ARPTest.router1.eth[1].mac  framesSent  ETV
172	8652038 96642 111 604872 1.0001344 17.253306577694 3162 1 3162 5000703 10543148825
vector 174  ARPTest.router1.eth[1].mac  bytesSent  ETV
174	8846900 105078 111 604872 1.0001344 17.253306577694 3162 64 2378852 3222185860 4.6259489799137e+015
vector 189  ARPTest.client.eth[0].mac  framesReceivedOK  ETV
189	9307116 96642 112 604873 1.0001344 17.253306577694 3162 1 3162 5000703 10543148825
vector 191  ARPTest.client.eth[0].mac  bytesReceivedOK  ETV
191	9510929 105078 112 604873 1.0001344 17.253306577694 3162 64 2378852 3222185860 4.6259489799137e+015
vector 195  ARPTest.client.eth[0].mac  framesPassedToHL  ETV
195	9616007 96642 112 604873 1.0001344 17.253306577694 3162 1 3162 5000703 10543148825
vector 158  ARPTest.router1.eth[0].mac  framesSent  ETV
158	8003506 97576 141 604907 1.0002688 17.253440977694 3197 1 3197 5112003 10897086395
vector 160  ARPTest.router1.eth[0].mac  bytesSent  ETV
160	8197747 106465 141 604907 1.0002688 17.253440977694 3197 64 1294886 2642217262 2.7942882773731e+015
vector 103  ARPTest.router5.eth[1].mac  framesReceivedOK  ETV
103	5322085 97717 142 604908 1.000268825 17.253441002694 3197 1 3197 5112003 10897086395
vector 105  ARPTest.router5.eth[1].mac  bytesReceivedOK  ETV
105	5525014 106606 142 604908 1.000268825 17.253441002694 3197 64 1294886 2642217262 2.7942882773731e+015
vector 109  ARPTest.router5.eth[1].mac  framesPassedToHL  ETV
109	5631620 97717 142 604908 1.000268825 17.253441002694 3197 1 3197 5112003 10897086395
vector 145  ARPTest.router2.eth[0].mac  framesReceivedOK  ETV
145	7219895 195342 149 604915 1.00026885 17.253441027694 6360 1 6360 20227980 85773377860
vector 147  ARPTest.router2.eth[0].mac  bytesReceivedOK  ETV
147	7415237 213630 149 604915 1.00026885 17.253441027694 6360 64 3673802 11736355168 2.8787271840269e+016
vector 151  ARPTest.router2.eth[0].mac  framesPassedToHL  ETV
151	7824162 41 149 439 1.00026885 1.0016804 2 1 2 3 5
vector 131  ARPTest.router3.eth[0].mac  framesReceivedOK  ETV
131	6544503 195601 153 604916 1.000268875 17.253441052694 6360 1 6360 20227980 85773377860
vector 133  ARPTest.router3.eth[0].mac  bytesReceivedOK  ETV
133	6740104 213889 153 604916 1.000268875 17.253441052694 6360 64 3673802 11736355168 2.8787271840269e+016
vector 137  ARPTest.router3.eth[0].mac  framesPassedToHL  ETV
137	7149544 44 153 449 1.000268875 1.001680425 2 1 2 3 5
vector 117  ARPTest.router4.eth[0].mac  framesReceivedOK  ETV
117	5869951 195348 157 604917 1.0002689 17.253441077694 6360 1 6360 20227980 85773377860
vector 119  ARPTest.router4.eth[0].mac  bytesReceivedOK  ETV
119	6065299 213636 157 604917 1.0002689 17.253441077694 6360 64 3673802 11736355168 2.8787271840269e+016
vector 123  ARPTest.router4.eth[0].mac  framesPassedToHL  ETV
123	6474236 41 157 453 1.0002689 1.00168045 2 1 2 3 5
vector 102  ARPTest.router5.eth[1].mac  framesSent  ETV
102	5225308 96777 171 604805 1.000336025 17.252424952694 3163 1 3163 5003866 10553153394
vector 104  ARPTest.router5.eth[1].mac  bytesSent  ETV
104	5419802 105212 171 604805 1.000336025 17.252424952694 3163 64 2378916 3222388292 4.6263614326594e+015
vector 159  ARPTest.router1.eth[0].mac  framesReceivedOK  ETV
159	8101082 96665 172 604806 1.00033605 17.252424977694 3163 1 3163 5003866 10553153394
vector 161  ARPTest.router1.eth[0].mac  bytesReceivedOK  ETV
161	8304212 105100 172 604806 1.00033605 17.252424977694 3163 64 2378916 3222388292 4.6263614326594e+015
vector 165  ARPTest.router1.eth[0].mac  framesPassedToHL  ETV
165	8409312 96665 172 604806 1.00033605 17.252424977694 3163 1 3163 5003866 10553153394
vector 150  ARPTest.router2.eth[0].mac  framesDroppedNotForUs  ETV
150	7628867 195295 173 604915 1.00033605 17.253441027694 6358 1 6358 20215261 85692491379
vector 136  ARPTest.router3.eth[0].mac  framesDroppedNotForUs  ETV
136	6953993 195551 180 604916 1.000336075 17.253441052694 6358 1 6358 20215261 85692491379
vector 122  ARPTest.router4.eth[0].mac  framesDroppedNotForUs  ETV
122	6278935 195301 181 604917 1.0003361 17.253441077694 6358 1 6358 20215261 85692491379
vector 88  ARPTest.router5.eth[0].mac  framesSent  ETV
88	4558380 94224 209 604924 1.000470475 17.253508202694 3187 1 3187 5080078 10795165750
vector 90  ARPTest.router5.eth[0].mac  bytesSent  ETV
90	4746397 103090 209 604924 1.000470475 17.253508202694 3187 64 1294246 2633720960 2.785036991429e+015
vector 75  ARPTest.router6.eth[0].mac  framesReceivedOK  ETV
75	3868152 188863 210 604925 1.0004705 17.253508227694 6356 1 6356 20202546 85611655766
vector 77  ARPTest.router6.eth[0].mac  bytesReceivedOK  ETV
77	4057015 207139 210 604925 1.0004705 17.253508227694 6356 64 3673546 11725952232 2.8756492125496e+016
vector 81  ARPTest.router6.eth[0].mac  framesPassedToHL  ETV
81	4452972 39 210 386 1.0004705 1.00147865 2 1 2 3 5
vector 47  ARPTest.router7.eth[0].mac  framesReceivedOK  ETV
47	2885949 94224 214 604926 1.000470525 17.253508252694 3187 1 3187 5080078 10795165750
vector 49  ARPTest.router7.eth[0].mac  bytesReceivedOK  ETV
49	3082412 103090 214 604926 1.000470525 17.253508252694 3187 64 1294246 2633720960 2.785036991429e+015
vector 53  ARPTest.router7.eth[0].mac  framesPassedToHL  ETV
53	3185502 94224 214 604926 1.000470525 17.253508252694 3187 1 3187 5080078 10795165750
vector 46  ARPTest.router7.eth[0].mac  framesSent  ETV
46	2792156 93793 227 604538 1.000537725 17.251242502694 3169 1 3169 5022865 10613313745
vector 48  ARPTest.router7.eth[0].mac  bytesSent  ETV
48	2980173 102239 227 604538 1.000537725 17.251242502694 3169 64 2379300 3227055248 4.6315082533624e+015
vector 80  ARPTest.router6.eth[0].mac  framesDroppedNotForUs  ETV
80	4264154 188818 228 604925 1.00053775 17.253508227694 6354 1 6354 20189835 85530871005
vector 89  ARPTest.router5.eth[0].mac  framesReceivedOK  ETV
89	4652604 93793 229 604540 1.000537775 17.251242552694 3169 1 3169 5022865 10613313745
vector 91  ARPTest.router5.eth[0].mac  bytesReceivedOK  ETV
91	4849487 102239 229 604540 1.000537775 17.251242552694 3169 64 2379300 3227055248 4.6315082533624e+015
vector 95  ARPTest.router5.eth[0].mac  framesPassedToHL  ETV
95	4951726 93793 229 604540 1.000537775 17.251242552694 3169 1 3169 5022865 10613313745
vector 60  ARPTest.router7.eth[1].mac  framesSent  ETV
60	3377102 94225 253 604935 1.000672225 17.253575452694 3187 1 3187 5080078 10795165750
vector 62  ARPTest.router7.eth[1].mac  bytesSent  ETV
62	3566397 103091 253 604935 1.000672225 17.253575452694 3187 64 1294246 2633720960 2.785036991429e+015
vector 33  ARPTest.router8.eth[1].mac  framesReceivedOK  ETV
33	2321052 94225 254 604936 1.000672225 17.253575452694 3187 1 3187 5080078 10795165750
vector 35  ARPTest.router8.eth[1].mac  bytesReceivedOK  ETV
35	2518871 103091 254 604936 1.000672225 17.253575452694 3187 64 1294246 2633720960 2.785036991429e+015
vector 39  ARPTest.router8.eth[1].mac  framesPassedToHL  ETV
39	2621962 94225 254 604936 1.000672225 17.253575452694 3187 1 3187 5080078 10795165750
vector 32  ARPTest.router8.eth[1].mac  framesSent  ETV
32	2225982 95070 263 604293 1.000739425 17.250296402694 3215 1 3215 5169720 11082156440
vector 34  ARPTest.router8.eth[1].mac  bytesSent  ETV
34	2415277 103594 263 604293 1.000739425 17.250296402694 3215 64 2386316 3259582928 4.6832970223363e+015
vector 61  ARPTest.router7.eth[1].mac  framesReceivedOK  ETV
61	3471327 95070 264 604294 1.000739425 17.250296402694 3215 1 3215 5169720 11082156440
vector 63  ARPTest.router7.eth[1].mac  bytesReceivedOK  ETV
63	3669488 103594 264 604294 1.000739425 17.250296402694 3215 64 2386316 3259582928 4.6832970223363e+015
vector 67  ARPTest.router7.eth[1].mac  framesPassedToHL  ETV
67	3773082 95070 264 604294 1.000739425 17.250296402694 3215 1 3215 5169720 11082156440
vector 18  ARPTest.router8.eth[0].mac  framesSent  ETV
18	1731325 94234 283 604945 1.000873825 17.253642652694 3187 1 3187 5080078 10795165750
vector 20  ARPTest.router8.eth[0].mac  bytesSent  ETV
20	1920629 103100 283 604945 1.000873825 17.253642652694 3187 64 1294246 2633720960 2.785036991429e+015
vector 5  ARPTest.server.eth[0].mac  framesReceivedOK  ETV
5	1340278 91048 284 604946 1.000873825 17.253642652694 3187 1 3187 5080078 10795165750
vector 7  ARPTest.server.eth[0].mac  bytesReceivedOK  ETV
7	1531705 99914 284 604946 1.000873825 17.253642652694 3187 64 1294246 2633720960 2.785036991429e+015
vector 11  ARPTest.server.eth[0].mac  framesPassedToHL  ETV
11	1631619 94235 284 604946 1.000873825 17.253642652694 3187 1 3187 5080078 10795165750
vector 4  ARPTest.server.eth[0].mac  framesSent  ETV
4	1248423 91855 295 604185 1.000941025 17.249414802694 3215 1 3215 5169720 11082156440
vector 6  ARPTest.server.eth[0].mac  bytesSent  ETV
6	1431326 100379 295 604185 1.000941025 17.249414802694 3215 64 2386316 3259582928 4.6832970223363e+015
vector 19  ARPTest.router8.eth[0].mac  framesReceivedOK  ETV
19	1825559 95070 296 604187 1.000941025 17.249414802694 3215 1 3215 5169720 11082156440
vector 21  ARPTest.router8.eth[0].mac  bytesReceivedOK  ETV
21	2023729 103594 296 604187 1.000941025 17.249414802694 3215 64 2386316 3259582928 4.6832970223363e+015
vector 25  ARPTest.router8.eth[0].mac  framesPassedToHL  ETV
25	2127323 95070 296 604187 1.000941025 17.249414802694 3215 1 3215 5169720 11082156440
vector 203  ARPTest.server.tcp  "rcvd seq"  ETV
203	342733 106485 310 604950 1.001008225 17.253642652694 3185 250000 1298578 3000418625 3.2590664187997e+015
vector 204  ARPTest.server.tcp  "rcvd ack"  ETV
204	449218 106705 310 604950 1.001008225 17.253642652694 3185 0 2347406 3568146865 5.0393600709778e+015
vector 200  ARPTest.server.tcp  "send window"  ETV
200	103567 55988 310 603882 1.001008225 17.246400352694 1746 14336 14336 25030656 358839484416
vector 202  ARPTest.server.tcp  "sent ack"  ETV
202	233512 109221 310 603882 1.001008225 17.246400352694 3267 250001 1298578 3071739875 3.3395003876212e+015
vector 215  ARPTest.client.tcp  "rcvd seq"  ETV
215	884215 105921 506 604877 1.00188205 17.253306577694 3161 250252 2346381 3587764740 5.093718823865e+015
vector 216  ARPTest.client.tcp  "rcvd ack"  ETV
216	990136 105697 506 604877 1.00188205 17.253306577694 3161 250001 1298578 2992743351 3.2623911559581e+015
vector 212  ARPTest.client.tcp  "send window"  ETV
212	712942 26632 506 349719 1.00188205 8.063816827694 840 14336 14336 12042240 172637552640
vector 218  ARPTest.client.tcp  cwnd  ETV
218	666068 30693 506 349719 1.00188205 8.063816827694 982 1024 21504 10266073 118332896267
vector 206  ARPTest.server.tcp  cwnd  ETV
206	7013 64039 577 603882 1.002218125 17.246400352694 2024 1024 26624 21320293 249791963219
vector 205  ARPTest.server.tcp  "unacked bytes"  ETV
205	555923 110145 577 603882 1.002218125 17.246400352694 3491 0 14336 32662529 337764171777
vector 213  ARPTest.client.tcp  "send seq"  ETV
213	739574 36199 580 348541 1.1 8.053862777694 1103 250001 1297553 837613759 7.3697941624734e+014
vector 217  ARPTest.client.tcp  "unacked bytes"  ETV
217	1095833 52488 580 349719 1.1 8.063816827694 1685 0 14336 15429642 156200187914
vector 201  ARPTest.server.tcp  "send seq"  ETV
201	159555 73957 654 603882 1.104408075 17.246400352694 2195 250253 2346381 2839060471 4.4695316773822e+015
vector 2  ARPTest.server.eth[0].queue  "queue length"  ETV
2	1148321 98707 665 604067 1.104408075 17.248533202694 3792 0 10 14246 80080
vector 220  ARPTest.client.tcp  "measured RTT"  ETV
220	697528 3820 735 348620 1.10474415 8.053997177694 106 0.00474415 0.0319108 1.1950698 0.016917153803105
vector 221  ARPTest.client.tcp  "smoothed RTT"  ETV
221	701348 4290 735 348620 1.10474415 8.053997177694 106 0.00059301875 0.016635872969 1.12425207264 0.012528794159923
vector 222  ARPTest.client.tcp  RTTVAR  ETV
222	705638 4283 735 348620 1.10474415 8.053997177694 106 0.002248828358 0.65684301875 5.73262218315 1.8863945416989
vector 223  ARPTest.client.tcp  RTO  ETV
223	709921 3021 735 348620 1.10474415 8.053997177694 106 1 2.62796509375 111.98255943665 124.49576438266
vector 186  ARPTest.client.eth[0].queue  "queue length"  ETV
186	9157369 50823 743 348905 1.10474415 8.058816377694 1840 0 10 6556 35968
vector 98  ARPTest.router5.eth[0].mac  collisions  ETV
98	5045519 46111 861 604355 1.107129725 17.250357652694 1587 1 1587 1260078 1333582550
vector 84  ARPTest.router6.eth[0].mac  collisions  ETV
84	4453011 46003 865 604359 1.10712975 17.250357677694 1587 1 1587 1260078 1333582550
vector 56  ARPTest.router7.eth[0].mac  collisions  ETV
56	3279726 46111 869 604363 1.107129775 17.250357702694 1587 1 1587 1260078 1333582550
vector 99  ARPTest.router5.eth[0].mac  backoffs  ETV
99	5091630 46111 876 604370 1.107132925 17.250360852694 1587 1 1587 1260078 1333582550
vector 57  ARPTest.router7.eth[0].mac  backoffs  ETV
57	3325837 46111 877 604371 1.107132975 17.250360902694 1587 1 1587 1260078 1333582550
vector 86  ARPTest.router5.eth[0].queue  "queue length"  ETV
86	4499014 59099 894 604578 1.107388975 17.251376952694 2214 0 10 4359 19939
vector 100  ARPTest.router5.eth[1].queue  "queue length"  ETV
100	5137741 87400 914 604634 1.108014625 17.251463252694 3126 0 10 3971 14871
vector 58  ARPTest.router7.eth[1].queue  "queue length"  ETV
58	3371948 5154 1055 259170 1.109845075 7.473010702694 200 0 10 610 3216
vector 16  ARPTest.router8.eth[0].queue  "queue length"  ETV
16	1725854 5471 1155 259342 1.110726675 7.473892302694 212 0 10 632 3326
vector 208  ARPTest.server.tcp  "measured RTT"  ETV
208	72481 7707 1265 603882 1.111608275 17.246400352694 212 0.00474415 0.0380384 2.4263595 0.0333506637762
vector 209  ARPTest.server.tcp  "smoothed RTT"  ETV
209	80188 8675 1265 603882 1.111608275 17.246400352694 212 0.000900025 0.017978030465 2.355320768198 0.026994753715633
vector 210  ARPTest.server.tcp  RTTVAR  ETV
210	88863 8663 1265 603882 1.111608275 17.246400352694 212 0.002314025238 0.657150025 6.11213537403 1.8830307876047
vector 211  ARPTest.server.tcp  RTO  ETV
211	97526 6041 1265 603882 1.111608275 17.246400352694 212 1 2.629500125 217.97373847302 230.52359530394
vector 44  ARPTest.router7.eth[0].queue  "queue length"  ETV
44	2716187 74830 1606 604337 1.114253075 17.250348002694 2790 0 10 4541 18851
vector 30  ARPTest.router8.eth[1].queue  "queue length"  ETV
30	2222393 3589 1752 258147 1.115470825 7.465246702694 140 0 10 288 1174
vector 168  ARPTest.router1.eth[0].mac  collisions  ETV
168	8505977 70227 2016 604655 1.118058 17.251472877694 2308 1 2308 2664586 4100797854
vector 112  ARPTest.router5.eth[1].mac  collisions  ETV
112	5729337 70307 2023 604662 1.118058025 17.251472902694 2308 1 2308 2664586 4100797854
vector 154  ARPTest.router2.eth[0].mac  collisions  ETV
154	7824203 70223 2032 604671 1.11805805 17.251472927694 2308 1 2308 2664586 4100797854
vector 140  ARPTest.router3.eth[0].mac  collisions  ETV
140	7149588 70307 2039 604678 1.118058075 17.251472952694 2308 1 2308 2664586 4100797854
vector 126  ARPTest.router4.eth[0].mac  collisions  ETV
126	6474277 70226 2045 604684 1.1180581 17.251472977694 2308 1 2308 2664586 4100797854
vector 169  ARPTest.router1.eth[0].mac  backoffs  ETV
169	8576204 70225 2048 604687 1.1180612 17.251476077694 2308 1 2308 2664586 4100797854
vector 113  ARPTest.router5.eth[1].mac  backoffs  ETV
113	5799644 70307 2050 604689 1.118061225 17.251476102694 2308 1 2308 2664586 4100797854
vector 156  ARPTest.router1.eth[0].queue  "queue length"  ETV
156	7894426 108455 2072 604388 1.1181156 17.250402377694 3880 0 10 9650 48360
vector 170  ARPTest.router1.eth[1].queue  "queue length"  ETV
170	8646429 5609 2261 258866 1.1192214 7.469391327694 204 0 8 468 1738
vector 3  ARPTest.server.eth[0].queue  drops  ETV
3	1247028 1395 6255 594851 1.145759025 17.192182902694 54 1 1 54 54
vector 45  ARPTest.router7.eth[0].queue  drops  ETV
45	2791017 1139 7883 253990 1.156002225 7.437570952694 46 1 1 46 46
vector 187  ARPTest.client.eth[0].queue  drops  ETV
187	9208192 704 10186 338801 1.1724614 7.986784877694 26 1 1 26 26
vector 207  ARPTest.server.tcp  ssthresh  ETV
207	71052 1429 12928 598746 1.191709225 17.211874002694 46 2048 7168 223738 1304812636
vector 219  ARPTest.client.tcp  ssthresh  ETV
219	696761 767 16102 342450 1.21087335 8.010957977694 25 2048 7168 124204 717060276
vector 101  ARPTest.router5.eth[1].queue  drops  ETV
101	5225141 167 35038 288864 2.718320552694 7.658117802694 6 1 1 6 6
vector 87  ARPTest.router5.eth[0].queue  drops  ETV
87	4558113 267 64016 573643 3.1401151481 17.038862602694 10 1 1 10 10
vector 157  ARPTest.router1.eth[0].queue  drops  ETV
157	8002881 625 110016 594184 3.818756027694 17.189317277694 22 1 1 22 22
