file 31667383 1318934290                                        
version 2
run Test2-0-20111018-11:38:02-17382
attr configname Test2
attr datetime 20111018-11:38:02
attr experiment Test2
attr inifile omnetpp.ini
attr iterationvars ""
attr iterationvars2 $repetition=0
attr measurement ""
attr network DistributionTest
attr processid 17382
attr repetition 0
attr replication #0
attr resultdir results
attr runnumber 0
attr seedset 0

vector 0  DistributionTest.gen  "sample vector"  ETV
0	421 22069900 1 699051 1 699051 699051 0.066595500946507 6285629.9813783 12942970745.058 8.4355216369651e+15
0	22070321 9597062 699052 1000000 699052 1000000 300949 0.013360258356063 6251238.0706745 5564605113.108 3.4519862069534e+15
