file 33324520 1318934311                                        
version 2
run Test3-0-20111018-11:38:23-17997
attr configname Test3
attr datetime 20111018-11:38:23
attr experiment Test3
attr inifile omnetpp.ini
attr iterationvars ""
attr iterationvars2 $repetition=0
attr measurement ""
attr network DistributionTest
attr processid 17997
attr repetition 0
attr replication #0
attr resultdir results
attr runnumber 0
attr seedset 0

vector 0  DistributionTest.gen  "sample vector"  ETV
0	421 23228247 1 699051 1 699051 699051 1.0407118719417e-42 410.08131398744 3990607.8369898 184206651.41161
0	23228668 10095852 699052 1000000 699052 1000000 300949 3.9764649755751e-40 360.01021381727 1715113.5264173 78859446.39534
