file 32756714 1318934331                                        
version 2
run Test4-0-20111018-11:38:44-18555
attr configname Test4
attr datetime 20111018-11:38:44
attr experiment Test4
attr inifile omnetpp.ini
attr iterationvars ""
attr iterationvars2 $repetition=0
attr measurement ""
attr network DistributionTest
attr processid 18555
attr repetition 0
attr replication #0
attr resultdir results
attr runnumber 0
attr seedset 0

vector 0  DistributionTest.gen  "sample vector"  ETV
0	421 22831447 1 699051 1 699051 699051 1.5926909078272e-05 298.03329379093 1583299.6802731 70845173.929099
0	22831868 9924846 699052 1000000 699052 1000000 300949 3.4155578390412e-06 299.40346665792 686749.72921858 30426205.278611
