file 31673703 1318932423                                        
version 2
run Test9-0-20111018-11:06:55-28614
attr configname Test9
attr datetime 20111018-11:06:55
attr experiment Test9
attr inifile omnetpp.ini
attr iterationvars ""
attr iterationvars2 $repetition=0
attr measurement ""
attr network DistributionTest
attr processid 28614
attr repetition 0
attr replication #0
attr resultdir results
attr runnumber 0
attr seedset 0

vector 0  DistributionTest.gen  "sample vector"  ETV
0	421 22074607 1 699051 1 699051 699051 0.00049127436470433 2398.2715077515 116412275.81309 38787832092.268
0	22075028 9598675 699052 1000000 699052 1000000 300949 0.0010080453362339 2101.49184463 50324648.340761 16815188475.548
